<?xml version="1.0"?>
<VTKFile type="ImageData" version="2.0" byte_order="LittleEndian" header_type="UInt32" compressor="vtkZLibDataCompressor">
  <ImageData WholeExtent="0 19 0 19 0 0" Origin="0.5 -0.5 0" Spacing="0.1 0.1 0.1">
  <Piece Extent="0 19 0 19 0 0">
    <PointData>
    </PointData>
    <CellData>
      <DataArray type="Float64" Name="GaussianPulse" format="ascii" RangeMin="6.2804787026e-05" RangeMax="9.2761464201e-05">
        9.2761464201e-05 9.1940571669e-05 9.1076331606e-05 9.0170106965e-05 8.9223317128e-05 8.8237434208e-05
        8.7213979238e-05 8.6154518276e-05 8.5060658419e-05 8.3934043761e-05 8.2776351294e-05 8.158928677e-05
        8.0374580541e-05 7.9133983393e-05 7.7869262381e-05 7.6582196682e-05 7.5274573481e-05 7.3948183905e-05
        7.2604819004e-05 9.245277409e-05 9.1634613311e-05 9.0773249251e-05 8.987004033e-05 8.8926401206e-05
        8.7943799091e-05 8.6923749958e-05 8.5867814653e-05 8.4777594925e-05 8.3654729398e-05 8.2500889482e-05
        8.1317775251e-05 8.0107111302e-05 7.8870642593e-05 7.76101303e-05 7.6327347677e-05 7.5024075964e-05
        7.3702100325e-05 7.2363205853e-05 9.2093933722e-05 9.12789485e-05 9.0420927685e-05 8.9521224422e-05
        8.8581247879e-05 8.7602459574e-05 8.6586369596e-05 8.5534532731e-05 8.4448544513e-05 8.3330037205e-05
        8.2180675731e-05 8.1002153565e-05 7.9796188611e-05 7.8564519054e-05 7.7308899233e-05 7.6031095522e-05
        7.4732882246e-05 7.341603764e-05 7.2082339868e-05 9.1685535573e-05 9.0874164471e-05 9.001994862e-05
        8.9124235165e-05 8.8188427026e-05 8.7213979238e-05 8.6202395195e-05 8.5155222787e-05 8.4074050474e-05
        8.2960503279e-05 8.1816238743e-05 8.0642942831e-05 7.9442325828e-05 7.8216118211e-05 7.696606654e-05
        7.5693929355e-05 7.4401473113e-05 7.3090468163e-05 7.1762684784e-05 9.1228252057e-05 9.0420927685e-05
        8.9570972253e-05 8.8679726188e-05 8.7748585411e-05 8.6778997702e-05 8.5772458955e-05 8.4730509342e-05
        8.3654729398e-05 8.2546736043e-05 8.140817855e-05 8.0240734476e-05 7.9046105575e-05 7.7826013694e-05
        7.6582196682e-05 7.5316404307e-05 7.4030394217e-05 7.2725927932e-05 7.1404766901e-05 9.0722833674e-05
        8.9919982002e-05 8.9074735452e-05 8.8188427026e-05 8.726244491e-05 8.6298228865e-05 8.5297266495e-05
        8.4261089441e-05 8.3191269482e-05 8.2089414579e-05 8.0957164867e-05 7.9796188611e-05 7.8608178135e-05
        7.7394845749e-05 7.6157919672e-05 7.489913998e-05 7.3620254581e-05 7.2323015237e-05 7.1009173639e-05
        9.0170106965e-05 8.9372146647e-05 8.8532049742e-05 8.7651141129e-05 8.6730800537e-05 8.5772458955e-05
        8.4777594925e-05 8.3747730755e-05 8.2684428648e-05 8.158928677e-05 8.0463935263e-05 7.9310032227e-05
        7.8129259677e-05 7.6923319489e-05 7.5693929355e-05 7.4442818748e-05 7.3171724929e-05 7.1882388985e-05
        7.0576551935e-05 8.9570972253e-05 8.8778313978e-05 8.7943799091e-05 8.706874367e-05 8.6154518276e-05
        8.5202544388e-05 8.4214290726e-05 8.3191269482e-05 8.2135032479e-05 8.1047167264e-05 7.9929293148e-05
        7.8783057214e-05 7.76101303e-05 7.6412202974e-05 7.5190981515e-05 7.3948183905e-05 7.268553586e-05
        7.1404766901e-05 7.0107606477e-05 8.8926401206e-05 8.8139447062e-05 8.7310937515e-05 8.6442179172e-05
        8.5534532731e-05 8.4589409442e-05 8.3608267456e-05 8.2592608082e-05 8.1543971977e-05 8.0463935263e-05
        7.9354105597e-05 7.8216118211e-05 7.7051631919e-05 7.5862325124e-05 7.4649891824e-05 7.341603764e-05
        7.2162475869e-05 7.0890923585e-05 6.9603097793e-05 8.8237434208e-05 8.7456577077e-05 8.6634486499e-05
        8.5772458955e-05 8.4871844604e-05 8.3934043761e-05 8.2960503279e-05 8.1952712837e-05 8.0912201155e-05
        7.9840532143e-05 7.8739301004e-05 7.76101303e-05 7.6454665992e-05 7.5274573481e-05 7.4071533641e-05
        7.2847238876e-05 7.1603389212e-05 7.0341688418e-05 6.9063840198e-05 8.7505177563e-05 8.6730800537e-05
        8.5915532248e-05 8.5060658419e-05 8.4167518002e-05 8.3237499694e-05 8.227203834e-05 8.1272611256e-05
        8.0240734476e-05 7.9177958931e-05 7.8085866587e-05 7.696606654e-05 7.5820191093e-05 7.4649891824e-05
        7.3456835659e-05 7.2242700959e-05 7.1009173639e-05 6.9757943331e-05 6.8490699599e-05 8.6730800537e-05
        8.596327636e-05 8.5155222787e-05 8.4307914163e-05 8.3422677593e-05 8.2500889482e-05 8.1543971977e-05
        8.0553389323e-05 7.9530644135e-05 7.8477273622e-05 7.7394845749e-05 7.6284955372e-05 7.5149220349e-05
        7.3989277643e-05 7.2806779428e-05 7.1603389212e-05 7.0380777991e-05 6.9140620446e-05 6.7884591186e-05
        8.5915532248e-05 8.5155222787e-05 8.4354764906e-05 8.3515420972e-05 8.2638505612e-05 8.1725382296e-05
        8.0777459802e-05 7.9796188611e-05 7.8783057214e-05 7.7739588368e-05 7.6667335302e-05 7.5567877878e-05
        7.4442818748e-05 7.3293779487e-05 7.2122396739e-05 7.0930318374e-05 6.9719199681e-05 6.8490699599e-05
        6.7246476996e-05 8.5060658419e-05 8.4307914163e-05 8.3515420972e-05 8.2684428648e-05 8.1816238743e-05
        8.0912201155e-05 7.9973710648e-05 7.9002203268e-05 7.7999152697e-05 7.696606654e-05 7.5904482569e-05
        7.481596493e-05 7.3702100325e-05 7.2564494196e-05 7.1404766901e-05 7.0224549914e-05 6.9025482053e-05
        6.7809205751e-05 6.657736337e-05 8.4167518002e-05 8.3422677593e-05 8.2638505612e-05 8.1816238743e-05
        8.0957164867e-05 8.0062619711e-05 7.9133983393e-05 7.817267688e-05 7.7180158381e-05 7.6157919672e-05
        7.5107482377e-05 7.4030394217e-05 7.2928225237e-05 7.1802564019e-05 7.0655013908e-05 6.9487189248e-05
        6.830071165e-05 6.7097206298e-05 6.5878298313e-05 8.3237499694e-05 8.2500889482e-05 8.1725382296e-05
        8.0912201155e-05 8.0062619711e-05 7.9177958931e-05 7.8259583683e-05 7.7308899233e-05 7.6327347677e-05
        7.5316404307e-05 7.4277573935e-05 7.3212387181e-05 7.2122396739e-05 7.1009173639e-05 6.987430351e-05
        6.8719382858e-05 6.7546015375e-05 6.6355808289e-05 6.5150368763e-05 8.227203834e-05 8.1543971977e-05
        8.0777459802e-05 7.9973710648e-05 7.9133983393e-05 7.8259583683e-05 7.7351860554e-05 7.6412202974e-05
        7.5442036312e-05 7.4442818748e-05 7.341603764e-05 7.2363205853e-05 7.1285858074e-05 7.018554711e-05
        6.9063840198e-05 6.7922315326e-05 6.6762557586e-05 6.5586155563e-05 6.4394697779e-05 8.1272611256e-05
        8.0553389323e-05 7.9796188611e-05 7.9002203268e-05 7.817267688e-05 7.7308899233e-05 7.6412202974e-05
        7.5483960199e-05 7.4525578961e-05 7.3538499726e-05 7.2524191784e-05 7.1484149624e-05 7.0419889287e-05
        6.9332944718e-05 6.8224864115e-05 6.7097206298e-05 6.5951537103e-05 6.4789425817e-05 6.3612441665e-05
        8.0240734476e-05 7.9530644135e-05 7.8783057214e-05 7.7999152697e-05 7.7180158381e-05 7.6327347677e-05
        7.5442036312e-05 7.4525578961e-05 7.3579365799e-05 7.2604819004e-05 7.1603389212e-05 7.0576551935e-05
        6.9525803967e-05 6.8452659777e-05 6.7358647907e-05 6.6245307385e-05 6.5114184166e-05 6.3966827613e-05
        6.2804787026e-05
      </DataArray>
      <DataArray type="UInt8" Name="vtkGhostType" format="ascii" RangeMin="0" RangeMax="0">
        0 0 0 0 0 0
        0 0 0 0 0 0
        0 0 0 0 0 0
        0 0 0 0 0 0
        0 0 0 0 0 0
        0 0 0 0 0 0
        0 0 0 0 0 0
        0 0 0 0 0 0
        0 0 0 0 0 0
        0 0 0 0 0 0
        0 0 0 0 0 0
        0 0 0 0 0 0
        0 0 0 0 0 0
        0 0 0 0 0 0
        0 0 0 0 0 0
        0 0 0 0 0 0
        0 0 0 0 0 0
        0 0 0 0 0 0
        0 0 0 0 0 0
        0 0 0 0 0 0
        0 0 0 0 0 0
        0 0 0 0 0 0
        0 0 0 0 0 0
        0 0 0 0 0 0
        0 0 0 0 0 0
        0 0 0 0 0 0
        0 0 0 0 0 0
        0 0 0 0 0 0
        0 0 0 0 0 0
        0 0 0 0 0 0
        0 0 0 0 0 0
        0 0 0 0 0 0
        0 0 0 0 0 0
        0 0 0 0 0 0
        0 0 0 0 0 0
        0 0 0 0 0 0
        0 0 0 0 0 0
        0 0 0 0 0 0
        0 0 0 0 0 0
        0 0 0 0 0 0
        0 0 0 0 0 0
        0 0 0 0 0 0
        0 0 0 0 0 0
        0 0 0 0 0 0
        0 0 0 0 0 0
        0 0 0 0 0 0
        0 0 0 0 0 0
        0 0 0 0 0 0
        0 0 0 0 0 0
        0 0 0 0 0 0
        0 0 0 0 0 0
        0 0 0 0 0 0
        0 0 0 0 0 0
        0 0 0 0 0 0
        0 0 0 0 0 0
        0 0 0 0 0 0
        0 0 0 0 0 0
        0 0 0 0 0 0
        0 0 0 0 0 0
        0 0 0 0 0 0
        0
      </DataArray>
    </CellData>
  </Piece>
  </ImageData>
</VTKFile>
