<?xml version="1.0"?>
<VTKFile type="ImageData" version="2.0" byte_order="LittleEndian" header_type="UInt32" compressor="vtkZLibDataCompressor">
  <ImageData WholeExtent="0 8 0 8 0 8" Origin="1 0 0" Spacing="0.25 0.25 0.25">
  <Piece Extent="0 8 0 8 0 8">
    <PointData>
    </PointData>
    <CellData>
      <DataArray type="Float64" Name="GaussianPulse" format="ascii" RangeMin="5.2377064603e-05" RangeMax="8.5164093585e-05">
        8.5164093585e-05 8.2543869887e-05 7.9726951141e-05 7.6739244631e-05 7.3607474396e-05 7.0358787435e-05
        6.7020368113e-05 6.3619068306e-05 8.3698310918e-05 8.1123184611e-05 7.835474863e-05 7.5418464359e-05
        7.2340595885e-05 6.9147822969e-05 6.5866862101e-05 6.2524103002e-05 8.197263432e-05 7.9450601501e-05
        7.6739244631e-05 7.3863500137e-05 7.0849090596e-05 6.7722145693e-05 6.4508831082e-05 6.1234992384e-05
        8.0004261996e-05 7.7542789627e-05 7.489653936e-05 7.2089848837e-05 6.9147822969e-05 6.6095964e-05
        6.295980928e-05 5.9764583811e-05 7.7812503406e-05 7.5418464359e-05 7.2844709502e-05 7.0114909733e-05
        6.7253482202e-05 6.4285230505e-05 6.1234992384e-05 5.8127301787e-05 7.5418464359e-05 7.309808215e-05
        7.0603513405e-05 6.7957700746e-05 6.5184310085e-05 6.2307381892e-05 5.9350989731e-05 5.6338912723e-05
        7.2844709502e-05 7.0603513405e-05 6.8194075119e-05 6.5638554316e-05 6.295980928e-05 6.0181060067e-05
        5.73255587e-05 5.4416272803e-05 7.0114909733e-05 6.7957700746e-05 6.5638554316e-05 6.31787997e-05
        6.0600438585e-05 5.7925820874e-05 5.5177327236e-05 5.2377064603e-05
        8.5164093585e-05 8.2543869887e-05 7.9726951141e-05 7.6739244631e-05 7.3607474396e-05 7.0358787435e-05
        6.7020368113e-05 6.3619068306e-05 8.3698310918e-05 8.1123184611e-05 7.835474863e-05 7.5418464359e-05
        7.2340595885e-05 6.9147822969e-05 6.5866862101e-05 6.2524103002e-05 8.197263432e-05 7.9450601501e-05
        7.6739244631e-05 7.3863500137e-05 7.0849090596e-05 6.7722145693e-05 6.4508831082e-05 6.1234992384e-05
        8.0004261996e-05 7.7542789627e-05 7.489653936e-05 7.2089848837e-05 6.9147822969e-05 6.6095964e-05
        6.295980928e-05 5.9764583811e-05 7.7812503406e-05 7.5418464359e-05 7.2844709502e-05 7.0114909733e-05
        6.7253482202e-05 6.4285230505e-05 6.1234992384e-05 5.8127301787e-05 7.5418464359e-05 7.309808215e-05
        7.0603513405e-05 6.7957700746e-05 6.5184310085e-05 6.2307381892e-05 5.9350989731e-05 5.6338912723e-05
        7.2844709502e-05 7.0603513405e-05 6.8194075119e-05 6.5638554316e-05 6.295980928e-05 6.0181060067e-05
        5.73255587e-05 5.4416272803e-05 7.0114909733e-05 6.7957700746e-05 6.5638554316e-05 6.31787997e-05
        6.0600438585e-05 5.7925820874e-05 5.5177327236e-05 5.2377064603e-05
        8.5164093585e-05 8.2543869887e-05 7.9726951141e-05 7.6739244631e-05 7.3607474396e-05 7.0358787435e-05
        6.7020368113e-05 6.3619068306e-05 8.3698310918e-05 8.1123184611e-05 7.835474863e-05 7.5418464359e-05
        7.2340595885e-05 6.9147822969e-05 6.5866862101e-05 6.2524103002e-05 8.197263432e-05 7.9450601501e-05
        7.6739244631e-05 7.3863500137e-05 7.0849090596e-05 6.7722145693e-05 6.4508831082e-05 6.1234992384e-05
        8.0004261996e-05 7.7542789627e-05 7.489653936e-05 7.2089848837e-05 6.9147822969e-05 6.6095964e-05
        6.295980928e-05 5.9764583811e-05 7.7812503406e-05 7.5418464359e-05 7.2844709502e-05 7.0114909733e-05
        6.7253482202e-05 6.4285230505e-05 6.1234992384e-05 5.8127301787e-05 7.5418464359e-05 7.309808215e-05
        7.0603513405e-05 6.7957700746e-05 6.5184310085e-05 6.2307381892e-05 5.9350989731e-05 5.6338912723e-05
        7.2844709502e-05 7.0603513405e-05 6.8194075119e-05 6.5638554316e-05 6.295980928e-05 6.0181060067e-05
        5.73255587e-05 5.4416272803e-05 7.0114909733e-05 6.7957700746e-05 6.5638554316e-05 6.31787997e-05
        6.0600438585e-05 5.7925820874e-05 5.5177327236e-05 5.2377064603e-05
        8.5164093585e-05 8.2543869887e-05 7.9726951141e-05 7.6739244631e-05 7.3607474396e-05 7.0358787435e-05
        6.7020368113e-05 6.3619068306e-05 8.3698310918e-05 8.1123184611e-05 7.835474863e-05 7.5418464359e-05
        7.2340595885e-05 6.9147822969e-05 6.5866862101e-05 6.2524103002e-05 8.197263432e-05 7.9450601501e-05
        7.6739244631e-05 7.3863500137e-05 7.0849090596e-05 6.7722145693e-05 6.4508831082e-05 6.1234992384e-05
        8.0004261996e-05 7.7542789627e-05 7.489653936e-05 7.2089848837e-05 6.9147822969e-05 6.6095964e-05
        6.295980928e-05 5.9764583811e-05 7.7812503406e-05 7.5418464359e-05 7.2844709502e-05 7.0114909733e-05
        6.7253482202e-05 6.4285230505e-05 6.1234992384e-05 5.8127301787e-05 7.5418464359e-05 7.309808215e-05
        7.0603513405e-05 6.7957700746e-05 6.5184310085e-05 6.2307381892e-05 5.9350989731e-05 5.6338912723e-05
        7.2844709502e-05 7.0603513405e-05 6.8194075119e-05 6.5638554316e-05 6.295980928e-05 6.0181060067e-05
        5.73255587e-05 5.4416272803e-05 7.0114909733e-05 6.7957700746e-05 6.5638554316e-05 6.31787997e-05
        6.0600438585e-05 5.7925820874e-05 5.5177327236e-05 5.2377064603e-05
        8.5164093585e-05 8.2543869887e-05 7.9726951141e-05 7.6739244631e-05 7.3607474396e-05 7.0358787435e-05
        6.7020368113e-05 6.3619068306e-05 8.3698310918e-05 8.1123184611e-05 7.835474863e-05 7.5418464359e-05
        7.2340595885e-05 6.9147822969e-05 6.5866862101e-05 6.2524103002e-05 8.197263432e-05 7.9450601501e-05
        7.6739244631e-05 7.3863500137e-05 7.0849090596e-05 6.7722145693e-05 6.4508831082e-05 6.1234992384e-05
        8.0004261996e-05 7.7542789627e-05 7.489653936e-05 7.2089848837e-05 6.9147822969e-05 6.6095964e-05
        6.295980928e-05 5.9764583811e-05 7.7812503406e-05 7.5418464359e-05 7.2844709502e-05 7.0114909733e-05
        6.7253482202e-05 6.4285230505e-05 6.1234992384e-05 5.8127301787e-05 7.5418464359e-05 7.309808215e-05
        7.0603513405e-05 6.7957700746e-05 6.5184310085e-05 6.2307381892e-05 5.9350989731e-05 5.6338912723e-05
        7.2844709502e-05 7.0603513405e-05 6.8194075119e-05 6.5638554316e-05 6.295980928e-05 6.0181060067e-05
        5.73255587e-05 5.4416272803e-05 7.0114909733e-05 6.7957700746e-05 6.5638554316e-05 6.31787997e-05
        6.0600438585e-05 5.7925820874e-05 5.5177327236e-05 5.2377064603e-05
        8.5164093585e-05 8.2543869887e-05 7.9726951141e-05 7.6739244631e-05 7.3607474396e-05 7.0358787435e-05
        6.7020368113e-05 6.3619068306e-05 8.3698310918e-05 8.1123184611e-05 7.835474863e-05 7.5418464359e-05
        7.2340595885e-05 6.9147822969e-05 6.5866862101e-05 6.2524103002e-05 8.197263432e-05 7.9450601501e-05
        7.6739244631e-05 7.3863500137e-05 7.0849090596e-05 6.7722145693e-05 6.4508831082e-05 6.1234992384e-05
        8.0004261996e-05 7.7542789627e-05 7.489653936e-05 7.2089848837e-05 6.9147822969e-05 6.6095964e-05
        6.295980928e-05 5.9764583811e-05 7.7812503406e-05 7.5418464359e-05 7.2844709502e-05 7.0114909733e-05
        6.7253482202e-05 6.4285230505e-05 6.1234992384e-05 5.8127301787e-05 7.5418464359e-05 7.309808215e-05
        7.0603513405e-05 6.7957700746e-05 6.5184310085e-05 6.2307381892e-05 5.9350989731e-05 5.6338912723e-05
        7.2844709502e-05 7.0603513405e-05 6.8194075119e-05 6.5638554316e-05 6.295980928e-05 6.0181060067e-05
        5.73255587e-05 5.4416272803e-05 7.0114909733e-05 6.7957700746e-05 6.5638554316e-05 6.31787997e-05
        6.0600438585e-05 5.7925820874e-05 5.5177327236e-05 5.2377064603e-05
        8.5164093585e-05 8.2543869887e-05 7.9726951141e-05 7.6739244631e-05 7.3607474396e-05 7.0358787435e-05
        6.7020368113e-05 6.3619068306e-05 8.3698310918e-05 8.1123184611e-05 7.835474863e-05 7.5418464359e-05
        7.2340595885e-05 6.9147822969e-05 6.5866862101e-05 6.2524103002e-05 8.197263432e-05 7.9450601501e-05
        7.6739244631e-05 7.3863500137e-05 7.0849090596e-05 6.7722145693e-05 6.4508831082e-05 6.1234992384e-05
        8.0004261996e-05 7.7542789627e-05 7.489653936e-05 7.2089848837e-05 6.9147822969e-05 6.6095964e-05
        6.295980928e-05 5.9764583811e-05 7.7812503406e-05 7.5418464359e-05 7.2844709502e-05 7.0114909733e-05
        6.7253482202e-05 6.4285230505e-05 6.1234992384e-05 5.8127301787e-05 7.5418464359e-05 7.309808215e-05
        7.0603513405e-05 6.7957700746e-05 6.5184310085e-05 6.2307381892e-05 5.9350989731e-05 5.6338912723e-05
        7.2844709502e-05 7.0603513405e-05 6.8194075119e-05 6.5638554316e-05 6.295980928e-05 6.0181060067e-05
        5.73255587e-05 5.4416272803e-05 7.0114909733e-05 6.7957700746e-05 6.5638554316e-05 6.31787997e-05
        6.0600438585e-05 5.7925820874e-05 5.5177327236e-05 5.2377064603e-05
        8.5164093585e-05 8.2543869887e-05 7.9726951141e-05 7.6739244631e-05 7.3607474396e-05 7.0358787435e-05
        6.7020368113e-05 6.3619068306e-05 8.3698310918e-05 8.1123184611e-05 7.835474863e-05 7.5418464359e-05
        7.2340595885e-05 6.9147822969e-05 6.5866862101e-05 6.2524103002e-05 8.197263432e-05 7.9450601501e-05
        7.6739244631e-05 7.3863500137e-05 7.0849090596e-05 6.7722145693e-05 6.4508831082e-05 6.1234992384e-05
        8.0004261996e-05 7.7542789627e-05 7.489653936e-05 7.2089848837e-05 6.9147822969e-05 6.6095964e-05
        6.295980928e-05 5.9764583811e-05 7.7812503406e-05 7.5418464359e-05 7.2844709502e-05 7.0114909733e-05
        6.7253482202e-05 6.4285230505e-05 6.1234992384e-05 5.8127301787e-05 7.5418464359e-05 7.309808215e-05
        7.0603513405e-05 6.7957700746e-05 6.5184310085e-05 6.2307381892e-05 5.9350989731e-05 5.6338912723e-05
        7.2844709502e-05 7.0603513405e-05 6.8194075119e-05 6.5638554316e-05 6.295980928e-05 6.0181060067e-05
        5.73255587e-05 5.4416272803e-05 7.0114909733e-05 6.7957700746e-05 6.5638554316e-05 6.31787997e-05
        6.0600438585e-05 5.7925820874e-05 5.5177327236e-05 5.2377064603e-05
      </DataArray>
    </CellData>
  </Piece>
  </ImageData>
</VTKFile>
