<?xml version="1.0"?>
<VTKFile type="ImageData" version="2.0" byte_order="LittleEndian" header_type="UInt32" compressor="vtkZLibDataCompressor">
  <ImageData WholeExtent="0 8 0 8 0 8" Origin="-2 -2 -2" Spacing="0.25 0.25 0.25">
  <Piece Extent="0 8 0 8 0 8">
    <PointData>
    </PointData>
    <CellData>
      <DataArray type="Float64" Name="GaussianPulse" format="ascii" RangeMin="9.5835718865e-05" RangeMax="9.991323211e-05">
        9.5835718865e-05 9.6839225125e-05 9.7514060209e-05 9.7853239207e-05 9.7853239207e-05 9.7514060209e-05
        9.6839225125e-05 9.5835718865e-05 9.6839225125e-05 9.7853239207e-05 9.8535140563e-05 9.8877871142e-05
        9.8877871142e-05 9.8535140563e-05 9.7853239207e-05 9.6839225125e-05 9.7514060209e-05 9.8535140563e-05
        9.9221793826e-05 9.9566912762e-05 9.9566912762e-05 9.9221793826e-05 9.8535140563e-05 9.7514060209e-05
        9.7853239207e-05 9.8877871142e-05 9.9566912762e-05 9.991323211e-05 9.991323211e-05 9.9566912762e-05
        9.8877871142e-05 9.7853239207e-05 9.7853239207e-05 9.8877871142e-05 9.9566912762e-05 9.991323211e-05
        9.991323211e-05 9.9566912762e-05 9.8877871142e-05 9.7853239207e-05 9.7514060209e-05 9.8535140563e-05
        9.9221793826e-05 9.9566912762e-05 9.9566912762e-05 9.9221793826e-05 9.8535140563e-05 9.7514060209e-05
        9.6839225125e-05 9.7853239207e-05 9.8535140563e-05 9.8877871142e-05 9.8877871142e-05 9.8535140563e-05
        9.7853239207e-05 9.6839225125e-05 9.5835718865e-05 9.6839225125e-05 9.7514060209e-05 9.7853239207e-05
        9.7853239207e-05 9.7514060209e-05 9.6839225125e-05 9.5835718865e-05
        9.5835718865e-05 9.6839225125e-05 9.7514060209e-05 9.7853239207e-05 9.7853239207e-05 9.7514060209e-05
        9.6839225125e-05 9.5835718865e-05 9.6839225125e-05 9.7853239207e-05 9.8535140563e-05 9.8877871142e-05
        9.8877871142e-05 9.8535140563e-05 9.7853239207e-05 9.6839225125e-05 9.7514060209e-05 9.8535140563e-05
        9.9221793826e-05 9.9566912762e-05 9.9566912762e-05 9.9221793826e-05 9.8535140563e-05 9.7514060209e-05
        9.7853239207e-05 9.8877871142e-05 9.9566912762e-05 9.991323211e-05 9.991323211e-05 9.9566912762e-05
        9.8877871142e-05 9.7853239207e-05 9.7853239207e-05 9.8877871142e-05 9.9566912762e-05 9.991323211e-05
        9.991323211e-05 9.9566912762e-05 9.8877871142e-05 9.7853239207e-05 9.7514060209e-05 9.8535140563e-05
        9.9221793826e-05 9.9566912762e-05 9.9566912762e-05 9.9221793826e-05 9.8535140563e-05 9.7514060209e-05
        9.6839225125e-05 9.7853239207e-05 9.8535140563e-05 9.8877871142e-05 9.8877871142e-05 9.8535140563e-05
        9.7853239207e-05 9.6839225125e-05 9.5835718865e-05 9.6839225125e-05 9.7514060209e-05 9.7853239207e-05
        9.7853239207e-05 9.7514060209e-05 9.6839225125e-05 9.5835718865e-05
        9.5835718865e-05 9.6839225125e-05 9.7514060209e-05 9.7853239207e-05 9.7853239207e-05 9.7514060209e-05
        9.6839225125e-05 9.5835718865e-05 9.6839225125e-05 9.7853239207e-05 9.8535140563e-05 9.8877871142e-05
        9.8877871142e-05 9.8535140563e-05 9.7853239207e-05 9.6839225125e-05 9.7514060209e-05 9.8535140563e-05
        9.9221793826e-05 9.9566912762e-05 9.9566912762e-05 9.9221793826e-05 9.8535140563e-05 9.7514060209e-05
        9.7853239207e-05 9.8877871142e-05 9.9566912762e-05 9.991323211e-05 9.991323211e-05 9.9566912762e-05
        9.8877871142e-05 9.7853239207e-05 9.7853239207e-05 9.8877871142e-05 9.9566912762e-05 9.991323211e-05
        9.991323211e-05 9.9566912762e-05 9.8877871142e-05 9.7853239207e-05 9.7514060209e-05 9.8535140563e-05
        9.9221793826e-05 9.9566912762e-05 9.9566912762e-05 9.9221793826e-05 9.8535140563e-05 9.7514060209e-05
        9.6839225125e-05 9.7853239207e-05 9.8535140563e-05 9.8877871142e-05 9.8877871142e-05 9.8535140563e-05
        9.7853239207e-05 9.6839225125e-05 9.5835718865e-05 9.6839225125e-05 9.7514060209e-05 9.7853239207e-05
        9.7853239207e-05 9.7514060209e-05 9.6839225125e-05 9.5835718865e-05
        9.5835718865e-05 9.6839225125e-05 9.7514060209e-05 9.7853239207e-05 9.7853239207e-05 9.7514060209e-05
        9.6839225125e-05 9.5835718865e-05 9.6839225125e-05 9.7853239207e-05 9.8535140563e-05 9.8877871142e-05
        9.8877871142e-05 9.8535140563e-05 9.7853239207e-05 9.6839225125e-05 9.7514060209e-05 9.8535140563e-05
        9.9221793826e-05 9.9566912762e-05 9.9566912762e-05 9.9221793826e-05 9.8535140563e-05 9.7514060209e-05
        9.7853239207e-05 9.8877871142e-05 9.9566912762e-05 9.991323211e-05 9.991323211e-05 9.9566912762e-05
        9.8877871142e-05 9.7853239207e-05 9.7853239207e-05 9.8877871142e-05 9.9566912762e-05 9.991323211e-05
        9.991323211e-05 9.9566912762e-05 9.8877871142e-05 9.7853239207e-05 9.7514060209e-05 9.8535140563e-05
        9.9221793826e-05 9.9566912762e-05 9.9566912762e-05 9.9221793826e-05 9.8535140563e-05 9.7514060209e-05
        9.6839225125e-05 9.7853239207e-05 9.8535140563e-05 9.8877871142e-05 9.8877871142e-05 9.8535140563e-05
        9.7853239207e-05 9.6839225125e-05 9.5835718865e-05 9.6839225125e-05 9.7514060209e-05 9.7853239207e-05
        9.7853239207e-05 9.7514060209e-05 9.6839225125e-05 9.5835718865e-05
        9.5835718865e-05 9.6839225125e-05 9.7514060209e-05 9.7853239207e-05 9.7853239207e-05 9.7514060209e-05
        9.6839225125e-05 9.5835718865e-05 9.6839225125e-05 9.7853239207e-05 9.8535140563e-05 9.8877871142e-05
        9.8877871142e-05 9.8535140563e-05 9.7853239207e-05 9.6839225125e-05 9.7514060209e-05 9.8535140563e-05
        9.9221793826e-05 9.9566912762e-05 9.9566912762e-05 9.9221793826e-05 9.8535140563e-05 9.7514060209e-05
        9.7853239207e-05 9.8877871142e-05 9.9566912762e-05 9.991323211e-05 9.991323211e-05 9.9566912762e-05
        9.8877871142e-05 9.7853239207e-05 9.7853239207e-05 9.8877871142e-05 9.9566912762e-05 9.991323211e-05
        9.991323211e-05 9.9566912762e-05 9.8877871142e-05 9.7853239207e-05 9.7514060209e-05 9.8535140563e-05
        9.9221793826e-05 9.9566912762e-05 9.9566912762e-05 9.9221793826e-05 9.8535140563e-05 9.7514060209e-05
        9.6839225125e-05 9.7853239207e-05 9.8535140563e-05 9.8877871142e-05 9.8877871142e-05 9.8535140563e-05
        9.7853239207e-05 9.6839225125e-05 9.5835718865e-05 9.6839225125e-05 9.7514060209e-05 9.7853239207e-05
        9.7853239207e-05 9.7514060209e-05 9.6839225125e-05 9.5835718865e-05
        9.5835718865e-05 9.6839225125e-05 9.7514060209e-05 9.7853239207e-05 9.7853239207e-05 9.7514060209e-05
        9.6839225125e-05 9.5835718865e-05 9.6839225125e-05 9.7853239207e-05 9.8535140563e-05 9.8877871142e-05
        9.8877871142e-05 9.8535140563e-05 9.7853239207e-05 9.6839225125e-05 9.7514060209e-05 9.8535140563e-05
        9.9221793826e-05 9.9566912762e-05 9.9566912762e-05 9.9221793826e-05 9.8535140563e-05 9.7514060209e-05
        9.7853239207e-05 9.8877871142e-05 9.9566912762e-05 9.991323211e-05 9.991323211e-05 9.9566912762e-05
        9.8877871142e-05 9.7853239207e-05 9.7853239207e-05 9.8877871142e-05 9.9566912762e-05 9.991323211e-05
        9.991323211e-05 9.9566912762e-05 9.8877871142e-05 9.7853239207e-05 9.7514060209e-05 9.8535140563e-05
        9.9221793826e-05 9.9566912762e-05 9.9566912762e-05 9.9221793826e-05 9.8535140563e-05 9.7514060209e-05
        9.6839225125e-05 9.7853239207e-05 9.8535140563e-05 9.8877871142e-05 9.8877871142e-05 9.8535140563e-05
        9.7853239207e-05 9.6839225125e-05 9.5835718865e-05 9.6839225125e-05 9.7514060209e-05 9.7853239207e-05
        9.7853239207e-05 9.7514060209e-05 9.6839225125e-05 9.5835718865e-05
        9.5835718865e-05 9.6839225125e-05 9.7514060209e-05 9.7853239207e-05 9.7853239207e-05 9.7514060209e-05
        9.6839225125e-05 9.5835718865e-05 9.6839225125e-05 9.7853239207e-05 9.8535140563e-05 9.8877871142e-05
        9.8877871142e-05 9.8535140563e-05 9.7853239207e-05 9.6839225125e-05 9.7514060209e-05 9.8535140563e-05
        9.9221793826e-05 9.9566912762e-05 9.9566912762e-05 9.9221793826e-05 9.8535140563e-05 9.7514060209e-05
        9.7853239207e-05 9.8877871142e-05 9.9566912762e-05 9.991323211e-05 9.991323211e-05 9.9566912762e-05
        9.8877871142e-05 9.7853239207e-05 9.7853239207e-05 9.8877871142e-05 9.9566912762e-05 9.991323211e-05
        9.991323211e-05 9.9566912762e-05 9.8877871142e-05 9.7853239207e-05 9.7514060209e-05 9.8535140563e-05
        9.9221793826e-05 9.9566912762e-05 9.9566912762e-05 9.9221793826e-05 9.8535140563e-05 9.7514060209e-05
        9.6839225125e-05 9.7853239207e-05 9.8535140563e-05 9.8877871142e-05 9.8877871142e-05 9.8535140563e-05
        9.7853239207e-05 9.6839225125e-05 9.5835718865e-05 9.6839225125e-05 9.7514060209e-05 9.7853239207e-05
        9.7853239207e-05 9.7514060209e-05 9.6839225125e-05 9.5835718865e-05
        9.5835718865e-05 9.6839225125e-05 9.7514060209e-05 9.7853239207e-05 9.7853239207e-05 9.7514060209e-05
        9.6839225125e-05 9.5835718865e-05 9.6839225125e-05 9.7853239207e-05 9.8535140563e-05 9.8877871142e-05
        9.8877871142e-05 9.8535140563e-05 9.7853239207e-05 9.6839225125e-05 9.7514060209e-05 9.8535140563e-05
        9.9221793826e-05 9.9566912762e-05 9.9566912762e-05 9.9221793826e-05 9.8535140563e-05 9.7514060209e-05
        9.7853239207e-05 9.8877871142e-05 9.9566912762e-05 9.991323211e-05 9.991323211e-05 9.9566912762e-05
        9.8877871142e-05 9.7853239207e-05 9.7853239207e-05 9.8877871142e-05 9.9566912762e-05 9.991323211e-05
        9.991323211e-05 9.9566912762e-05 9.8877871142e-05 9.7853239207e-05 9.7514060209e-05 9.8535140563e-05
        9.9221793826e-05 9.9566912762e-05 9.9566912762e-05 9.9221793826e-05 9.8535140563e-05 9.7514060209e-05
        9.6839225125e-05 9.7853239207e-05 9.8535140563e-05 9.8877871142e-05 9.8877871142e-05 9.8535140563e-05
        9.7853239207e-05 9.6839225125e-05 9.5835718865e-05 9.6839225125e-05 9.7514060209e-05 9.7853239207e-05
        9.7853239207e-05 9.7514060209e-05 9.6839225125e-05 9.5835718865e-05
      </DataArray>
    </CellData>
  </Piece>
  </ImageData>
</VTKFile>
