<?xml version="1.0"?>
<VTKFile type="ImageData" version="2.0" byte_order="LittleEndian" header_type="UInt32" compressor="vtkZLibDataCompressor">
  <ImageData WholeExtent="0 5 0 4 0 0" Origin="-2 -2 0" Spacing="1 1 1">
  <Piece Extent="0 5 0 4 0 0">
    <PointData>
    </PointData>
    <CellData>
      <DataArray type="Float64" Name="GaussianPulse" format="ascii" RangeMin="5.9816485313e-05" RangeMax="9.8620711674e-05">
        9.8620711674e-05 9.8620711674e-05 9.3291196039e-05 8.3480630128e-05 7.0664827786e-05 9.8620711674e-05
        9.8620711674e-05 9.3291196039e-05 8.3480630128e-05 7.0664827786e-05 9.3291196039e-05 9.3291196039e-05
        8.8249690258e-05 7.896929254e-05 6.6846062963e-05 8.3480630128e-05 8.3480630128e-05 7.896929254e-05
        7.0664827786e-05 5.9816485313e-05
      </DataArray>
      <DataArray type="UInt8" Name="vtkGhostType" format="ascii" RangeMin="0" RangeMax="8">
          8 8 0 0 0 
          8 8 0 0 0 
          0 0 0 8 8 
          0 0 0 8 8
      </DataArray>
    </CellData>
  </Piece>
  </ImageData>
</VTKFile>
